,image_name,class_id,confidence_score,x_min,y_min,x_max,y_max
0,VAIPE_P_0_0.jpg,10,0.95508,1193,1618,1697,2337
1,VAIPE_P_0_0.jpg,99,0.94727,1057,2220,1685,2678
2,VAIPE_P_0_0.jpg,10,0.93604,1608,2136,1958,2938
3,VAIPE_P_0_0.jpg,89,0.12598,1054,2226,1688,2671
4,VAIPE_P_0_0.jpg,107,0.00256,1054,2226,1688,2671
5,VAIPE_P_0_0.jpg,107,0.00228,1584,2,1902,103
6,VAIPE_P_0_0.jpg,91,0.00201,1054,2226,1688,2671
7,VAIPE_P_0_0.jpg,107,0.00131,1051,2224,1685,2665
8,VAIPE_P_0_0.jpg,90,0.0013,1049,2222,1687,2667
9,VAIPE_P_0_0.jpg,82,0.0009550800000000001,1193,1618,1697,2337
10,VAIPE_P_0_0.jpg,89,0.00094727,1057,2220,1685,2678
11,VAIPE_P_0_0.jpg,99,0.00094727,1057,2220,1685,2678
12,VAIPE_P_0_0.jpg,90,0.00094727,1057,2220,1685,2678
13,VAIPE_P_0_0.jpg,91,0.00094727,1057,2220,1685,2678
14,VAIPE_P_0_0.jpg,82,0.00093604,1608,2136,1958,2938
15,VAIPE_P_0_0.jpg,99,0.00012598,1054,2226,1688,2671
16,VAIPE_P_0_0.jpg,90,0.00012598,1054,2226,1688,2671
17,VAIPE_P_0_0.jpg,91,0.00012598,1054,2226,1688,2671
18,VAIPE_P_0_0.jpg,89,2.56e-06,1054,2226,1688,2671
19,VAIPE_P_0_0.jpg,99,2.56e-06,1054,2226,1688,2671
20,VAIPE_P_0_0.jpg,90,2.56e-06,1054,2226,1688,2671
21,VAIPE_P_0_0.jpg,91,2.56e-06,1054,2226,1688,2671
22,VAIPE_P_0_0.jpg,99,2.0100000000000002e-06,1054,2226,1688,2671
23,VAIPE_P_0_0.jpg,90,2.0100000000000002e-06,1054,2226,1688,2671
24,VAIPE_P_0_0.jpg,89,2.0100000000000002e-06,1054,2226,1688,2671
25,VAIPE_P_0_0.jpg,89,1.31e-06,1051,2224,1685,2665
26,VAIPE_P_0_0.jpg,99,1.31e-06,1051,2224,1685,2665
27,VAIPE_P_0_0.jpg,90,1.31e-06,1051,2224,1685,2665
28,VAIPE_P_0_0.jpg,91,1.31e-06,1051,2224,1685,2665
29,VAIPE_P_0_0.jpg,99,1.3e-06,1049,2222,1687,2667
30,VAIPE_P_0_0.jpg,89,1.3e-06,1049,2222,1687,2667
31,VAIPE_P_0_0.jpg,91,1.3e-06,1049,2222,1687,2667
32,VAIPE_P_0_1.jpg,99,0.95459,1119,2627,2129,3354
33,VAIPE_P_0_1.jpg,10,0.94238,455,2352,1255,3587
34,VAIPE_P_0_1.jpg,10,0.93652,951,1703,2209,2314
35,VAIPE_P_0_1.jpg,8,0.91602,1168,2165,1982,2560
36,VAIPE_P_0_1.jpg,10,0.16626,1160,2155,2002,2570
37,VAIPE_P_0_1.jpg,89,0.00933,1110,2621,2136,3364
38,VAIPE_P_0_1.jpg,10,0.00233,2331,2948,3024,3851
39,VAIPE_P_0_1.jpg,82,0.00215,954,1701,2209,2335
40,VAIPE_P_0_1.jpg,90,0.00193,1116,2638,2127,3352
41,VAIPE_P_0_1.jpg,107,0.00189,2066,3373,2281,3570
42,VAIPE_P_0_1.jpg,107,0.0016,955,1713,2209,2316
43,VAIPE_P_0_1.jpg,107,0.00136,955,1713,2209,2316
44,VAIPE_P_0_1.jpg,99,0.00117,2331,2948,3024,3851
45,VAIPE_P_0_1.jpg,107,0.00116,1176,2159,1995,2554
46,VAIPE_P_0_1.jpg,107,0.00113,1178,2159,1995,2554
47,VAIPE_P_0_1.jpg,107,0.00105,941,1701,2222,2318
48,VAIPE_P_0_1.jpg,89,0.0009545900000000001,1119,2627,2129,3354
49,VAIPE_P_0_1.jpg,99,0.0009545900000000001,1119,2627,2129,3354
50,VAIPE_P_0_1.jpg,90,0.0009545900000000001,1119,2627,2129,3354
51,VAIPE_P_0_1.jpg,91,0.0009545900000000001,1119,2627,2129,3354
52,VAIPE_P_0_1.jpg,82,0.00094238,455,2352,1255,3587
53,VAIPE_P_0_1.jpg,82,0.00093652,951,1703,2209,2314
54,VAIPE_P_0_1.jpg,82,0.00016626,1160,2155,2002,2570
55,VAIPE_P_0_1.jpg,99,9.33e-06,1110,2621,2136,3364
56,VAIPE_P_0_1.jpg,90,9.33e-06,1110,2621,2136,3364
57,VAIPE_P_0_1.jpg,91,9.33e-06,1110,2621,2136,3364
58,VAIPE_P_0_1.jpg,82,2.33e-06,2331,2948,3024,3851
59,VAIPE_P_0_1.jpg,10,2.15e-06,954,1701,2209,2335
60,VAIPE_P_0_1.jpg,99,1.93e-06,1116,2638,2127,3352
61,VAIPE_P_0_1.jpg,89,1.93e-06,1116,2638,2127,3352
62,VAIPE_P_0_1.jpg,91,1.93e-06,1116,2638,2127,3352
63,VAIPE_P_0_1.jpg,10,1.6000000000000001e-06,955,1713,2209,2316
64,VAIPE_P_0_1.jpg,82,1.6000000000000001e-06,955,1713,2209,2316
65,VAIPE_P_0_1.jpg,89,1.17e-06,2331,2948,3024,3851
66,VAIPE_P_0_1.jpg,99,1.17e-06,2331,2948,3024,3851
67,VAIPE_P_0_1.jpg,90,1.17e-06,2331,2948,3024,3851
68,VAIPE_P_0_1.jpg,91,1.17e-06,2331,2948,3024,3851
69,VAIPE_P_0_2.jpg,10,0.94727,1255,1881,1692,2673
70,VAIPE_P_0_2.jpg,10,0.94678,799,2098,1349,2925
71,VAIPE_P_0_2.jpg,99,0.94531,970,2610,1648,3219
72,VAIPE_P_0_2.jpg,8,0.93701,1606,1904,1892,2451
73,VAIPE_P_0_2.jpg,10,0.30078,1600,1894,1900,2474
74,VAIPE_P_0_2.jpg,89,0.01968,967,2612,1645,3213
75,VAIPE_P_0_2.jpg,89,0.01668,2572,1967,3024,2692
76,VAIPE_P_0_2.jpg,107,0.00166,2384,1980,2656,2283
77,VAIPE_P_0_2.jpg,99,0.00155,1596,1890,1907,2474
78,VAIPE_P_0_2.jpg,91,0.00143,968,2610,1648,3211
79,VAIPE_P_0_2.jpg,107,0.00113,1600,1894,1900,2474
80,VAIPE_P_0_2.jpg,82,0.00094727,1255,1881,1692,2673
81,VAIPE_P_0_2.jpg,82,0.0009467799999999999,799,2098,1349,2925
82,VAIPE_P_0_2.jpg,89,0.00094531,970,2610,1648,3219
83,VAIPE_P_0_2.jpg,99,0.00094531,970,2610,1648,3219
84,VAIPE_P_0_2.jpg,90,0.00094531,970,2610,1648,3219
85,VAIPE_P_0_2.jpg,91,0.00094531,970,2610,1648,3219
86,VAIPE_P_0_2.jpg,82,0.00030078,1600,1894,1900,2474
87,VAIPE_P_0_2.jpg,99,1.968e-05,967,2612,1645,3213
88,VAIPE_P_0_2.jpg,90,1.968e-05,967,2612,1645,3213
89,VAIPE_P_0_2.jpg,91,1.968e-05,967,2612,1645,3213
90,VAIPE_P_0_2.jpg,99,1.668e-05,2572,1967,3024,2692
91,VAIPE_P_0_2.jpg,90,1.668e-05,2572,1967,3024,2692
92,VAIPE_P_0_2.jpg,91,1.668e-05,2572,1967,3024,2692
93,VAIPE_P_0_2.jpg,89,1.55e-06,1596,1890,1907,2474
94,VAIPE_P_0_2.jpg,99,1.55e-06,1596,1890,1907,2474
95,VAIPE_P_0_2.jpg,90,1.55e-06,1596,1890,1907,2474
96,VAIPE_P_0_2.jpg,91,1.55e-06,1596,1890,1907,2474
97,VAIPE_P_0_2.jpg,99,1.43e-06,968,2610,1648,3211
98,VAIPE_P_0_2.jpg,90,1.43e-06,968,2610,1648,3211
99,VAIPE_P_0_2.jpg,89,1.43e-06,968,2610,1648,3211
100,VAIPE_P_0_3.jpg,10,0.95752,849,2113,1473,2902
101,VAIPE_P_0_3.jpg,10,0.95508,1905,1437,2539,2184
102,VAIPE_P_0_3.jpg,99,0.93799,1175,1983,1765,2623
103,VAIPE_P_0_3.jpg,89,0.89746,1170,1980,1772,2623
104,VAIPE_P_0_3.jpg,91,0.00386,1171,1991,1773,2621
105,VAIPE_P_0_3.jpg,107,0.00138,1171,1991,1773,2621
106,VAIPE_P_0_3.jpg,82,0.00095752,849,2113,1473,2902
107,VAIPE_P_0_3.jpg,82,0.0009550800000000001,1905,1437,2539,2184
108,VAIPE_P_0_3.jpg,89,0.00093799,1175,1983,1765,2623
109,VAIPE_P_0_3.jpg,99,0.00093799,1175,1983,1765,2623
110,VAIPE_P_0_3.jpg,90,0.00093799,1175,1983,1765,2623
111,VAIPE_P_0_3.jpg,91,0.00093799,1175,1983,1765,2623
112,VAIPE_P_0_3.jpg,99,0.0008974600000000001,1170,1980,1772,2623
113,VAIPE_P_0_3.jpg,90,0.0008974600000000001,1170,1980,1772,2623
114,VAIPE_P_0_3.jpg,91,0.0008974600000000001,1170,1980,1772,2623
115,VAIPE_P_0_3.jpg,99,3.86e-06,1171,1991,1773,2621
116,VAIPE_P_0_3.jpg,90,3.86e-06,1171,1991,1773,2621
117,VAIPE_P_0_3.jpg,89,3.86e-06,1171,1991,1773,2621
118,VAIPE_P_0_3.jpg,89,1.38e-06,1171,1991,1773,2621
119,VAIPE_P_0_3.jpg,99,1.38e-06,1171,1991,1773,2621
120,VAIPE_P_0_3.jpg,90,1.38e-06,1171,1991,1773,2621
121,VAIPE_P_0_3.jpg,91,1.38e-06,1171,1991,1773,2621
40540,VAIPE_P_0_4.jpg,107,0.48022,1564,1862,1976,2255
40541,VAIPE_P_0_4.jpg,107,0.47583,2021,2059,2386,2636
40542,VAIPE_P_0_4.jpg,107,0.47485,1741,2224,2255,3043
40543,VAIPE_P_0_4.jpg,107,0.46533,1337,1472,1971,1871
40544,VAIPE_P_0_4.jpg,107,0.46533,1193,2740,1699,3631
40545,VAIPE_P_0_4.jpg,107,0.46216,1380,2352,1795,2764
40546,VAIPE_P_0_5.jpg,107,0.43726,237,1981,931,2587
40547,VAIPE_P_0_5.jpg,107,0.42407,1554,2703,2024,3333
40548,VAIPE_P_0_5.jpg,107,0.42188,1629,1908,2514,2757
40549,VAIPE_P_0_5.jpg,107,0.4104,1094,2197,1585,2692
40550,VAIPE_P_0_5.jpg,107,0.39795,648,834,1283,1751
40551,VAIPE_P_0_5.jpg,107,0.39038,1518,1144,2035,1667
122,VAIPE_P_0_5.jpg,107,0.01776,1619,2766,1959,3286
123,VAIPE_P_0_5.jpg,89,0.00499,2232,1916,2984,3259
124,VAIPE_P_0_5.jpg,107,0.00202,1667,1983,2472,2713
125,VAIPE_P_0_5.jpg,107,0.00181,2044,1671,2375,2074
126,VAIPE_P_0_5.jpg,107,0.00127,1603,1248,1958,1608
127,VAIPE_P_0_5.jpg,107,0.00116,2119,1972,3005,3207
128,VAIPE_P_0_5.jpg,107,0.00115,1958,1744,2314,2065
40552,VAIPE_P_0_5.jpg,107,0.00113,1497,1115,2148,1764
129,VAIPE_P_0_5.jpg,107,0.00107,1605,2780,1973,3280
130,VAIPE_P_0_5.jpg,99,4.99e-06,2232,1916,2984,3259
131,VAIPE_P_0_5.jpg,90,4.99e-06,2232,1916,2984,3259
132,VAIPE_P_0_5.jpg,91,4.99e-06,2232,1916,2984,3259
40553,VAIPE_P_0_6.jpg,107,0.45288,340,1936,1172,2719
40554,VAIPE_P_0_6.jpg,107,0.44995,1244,2752,1842,3640
40555,VAIPE_P_0_6.jpg,107,0.44727,866,1268,1795,2234
40556,VAIPE_P_0_6.jpg,107,0.43408,1832,2058,2684,2773
133,VAIPE_P_0_6.jpg,107,0.00216,1209,2728,1889,3668
134,VAIPE_P_100_0.jpg,43,0.9502,1717,1858,2521,2629
135,VAIPE_P_100_0.jpg,91,0.94678,926,1906,1607,2473
136,VAIPE_P_100_0.jpg,91,0.94189,1143,2348,1791,2985
137,VAIPE_P_100_0.jpg,43,0.93799,1081,1528,2025,1947
138,VAIPE_P_100_0.jpg,99,0.0009467799999999999,926,1906,1607,2473
139,VAIPE_P_100_0.jpg,90,0.0009467799999999999,926,1906,1607,2473
140,VAIPE_P_100_0.jpg,89,0.0009467799999999999,926,1906,1607,2473
141,VAIPE_P_100_0.jpg,88,0.0009467799999999999,926,1906,1607,2473
142,VAIPE_P_100_0.jpg,99,0.00094189,1143,2348,1791,2985
143,VAIPE_P_100_0.jpg,90,0.00094189,1143,2348,1791,2985
144,VAIPE_P_100_0.jpg,89,0.00094189,1143,2348,1791,2985
145,VAIPE_P_100_0.jpg,88,0.00094189,1143,2348,1791,2985
40557,VAIPE_P_100_1.jpg,107,0.47168,1564,1987,1919,2606
40558,VAIPE_P_100_1.jpg,107,0.46997,1278,1664,1712,2245
40559,VAIPE_P_100_1.jpg,107,0.46924,1741,1823,2154,2436
40560,VAIPE_P_100_1.jpg,107,0.45923,912,1840,1314,2236
40561,VAIPE_P_100_1.jpg,107,0.45386,716,2152,1675,2690
40562,VAIPE_P_100_1.jpg,107,0.44873,931,2520,1389,2993
146,VAIPE_P_100_1.jpg,107,0.00888,943,2520,1384,2984
40563,VAIPE_P_100_2.jpg,107,0.47046,1313,2657,1706,3057
40564,VAIPE_P_100_2.jpg,107,0.46826,1409,2016,1663,2492
40565,VAIPE_P_100_2.jpg,107,0.46802,1703,2477,2202,2980
40566,VAIPE_P_100_2.jpg,107,0.46655,1052,2084,1439,2462
40567,VAIPE_P_100_2.jpg,107,0.46313,1625,2219,1939,2533
40568,VAIPE_P_100_2.jpg,107,0.45923,1093,2462,1431,2789
147,VAIPE_P_100_2.jpg,107,0.00478,1704,2464,2240,2993
40145,VAIPE_P_100_3.jpg,107,0.44482,2356,304,3310,1200
40146,VAIPE_P_100_3.jpg,107,0.43481,2583,1226,3322,1936
40147,VAIPE_P_100_3.jpg,107,0.43311,1958,1669,2894,2942
40148,VAIPE_P_100_3.jpg,107,0.42236,968,377,2123,1328
148,VAIPE_P_101_0.jpg,43,0.93652,439,593,1369,1370
149,VAIPE_P_101_0.jpg,91,0.93457,692,1310,1473,1894
150,VAIPE_P_101_0.jpg,43,0.93262,435,2035,1424,2644
151,VAIPE_P_101_0.jpg,89,0.00235,2044,2815,2523,3106
152,VAIPE_P_101_0.jpg,99,0.00093457,692,1310,1473,1894
153,VAIPE_P_101_0.jpg,90,0.00093457,692,1310,1473,1894
154,VAIPE_P_101_0.jpg,89,0.00093457,692,1310,1473,1894
155,VAIPE_P_101_0.jpg,88,0.00093457,692,1310,1473,1894
156,VAIPE_P_101_0.jpg,99,2.35e-06,2044,2815,2523,3106
157,VAIPE_P_101_0.jpg,90,2.35e-06,2044,2815,2523,3106
158,VAIPE_P_101_0.jpg,91,2.35e-06,2044,2815,2523,3106
159,VAIPE_P_101_0.jpg,88,2.35e-06,2044,2815,2523,3106
160,VAIPE_P_102_0.jpg,43,0.90723,1129,1594,2144,2056
161,VAIPE_P_102_0.jpg,43,0.90674,783,2183,1763,2683
162,VAIPE_P_103_0.jpg,91,0.96143,547,2305,1350,2997
163,VAIPE_P_103_0.jpg,91,0.93115,1491,2139,2309,2698
164,VAIPE_P_103_0.jpg,30,0.92236,1244,2829,1607,3216
165,VAIPE_P_103_0.jpg,107,0.0835,0,2133,147,3238
166,VAIPE_P_103_0.jpg,107,0.07214,0,2137,143,3285
167,VAIPE_P_103_0.jpg,89,0.0267,0,2137,143,3285
168,VAIPE_P_103_0.jpg,107,0.02174,0,2240,144,3255
169,VAIPE_P_103_0.jpg,107,0.01447,0,2137,143,3285
170,VAIPE_P_103_0.jpg,107,0.00802,0,2040,144,3283
171,VAIPE_P_103_0.jpg,91,0.00711,0,2146,120,3281
172,VAIPE_P_103_0.jpg,107,0.00552,0,2137,143,3285
173,VAIPE_P_103_0.jpg,107,0.00323,0,2163,144,3259
174,VAIPE_P_103_0.jpg,91,0.00239,0,2419,141,3236
175,VAIPE_P_103_0.jpg,107,0.00202,0,2137,143,3285
176,VAIPE_P_103_0.jpg,107,0.00198,0,2240,144,3255
177,VAIPE_P_103_0.jpg,107,0.00196,0,2163,144,3259
178,VAIPE_P_103_0.jpg,107,0.0018,0,2163,144,3259
179,VAIPE_P_103_0.jpg,107,0.00169,0,2137,143,3285
180,VAIPE_P_103_0.jpg,107,0.00162,0,2137,143,3285
181,VAIPE_P_103_0.jpg,107,0.00155,0,2133,147,3238
182,VAIPE_P_103_0.jpg,107,0.00144,0,2163,144,3259
183,VAIPE_P_103_0.jpg,107,0.00125,0,2163,144,3259
184,VAIPE_P_103_0.jpg,30,0.00119,0,2894,128,3229
185,VAIPE_P_103_0.jpg,107,0.00119,0,2378,125,3255
186,VAIPE_P_103_0.jpg,107,0.00109,0,2133,147,3238
187,VAIPE_P_103_0.jpg,107,0.00107,0,2137,143,3285
188,VAIPE_P_103_0.jpg,99,0.00107,0,2137,143,3285
189,VAIPE_P_103_0.jpg,99,0.00096143,547,2305,1350,2997
190,VAIPE_P_103_0.jpg,90,0.00096143,547,2305,1350,2997
191,VAIPE_P_103_0.jpg,89,0.00096143,547,2305,1350,2997
192,VAIPE_P_103_0.jpg,99,0.0009311500000000001,1491,2139,2309,2698
193,VAIPE_P_103_0.jpg,90,0.0009311500000000001,1491,2139,2309,2698
194,VAIPE_P_103_0.jpg,89,0.0009311500000000001,1491,2139,2309,2698
195,VAIPE_P_103_0.jpg,99,2.6700000000000002e-05,0,2137,143,3285
196,VAIPE_P_103_0.jpg,90,2.6700000000000002e-05,0,2137,143,3285
197,VAIPE_P_103_0.jpg,91,2.6700000000000002e-05,0,2137,143,3285
198,VAIPE_P_103_0.jpg,99,7.1100000000000005e-06,0,2146,120,3281
199,VAIPE_P_103_0.jpg,90,7.1100000000000005e-06,0,2146,120,3281
200,VAIPE_P_103_0.jpg,89,7.1100000000000005e-06,0,2146,120,3281
201,VAIPE_P_103_0.jpg,99,2.3900000000000004e-06,0,2419,141,3236
202,VAIPE_P_103_0.jpg,90,2.3900000000000004e-06,0,2419,141,3236
203,VAIPE_P_103_0.jpg,89,2.3900000000000004e-06,0,2419,141,3236
204,VAIPE_P_103_0.jpg,99,1.98e-06,0,2240,144,3255
205,VAIPE_P_103_0.jpg,90,1.98e-06,0,2240,144,3255
206,VAIPE_P_103_0.jpg,89,1.98e-06,0,2240,144,3255
207,VAIPE_P_103_0.jpg,91,1.98e-06,0,2240,144,3255
208,VAIPE_P_103_0.jpg,89,1.6900000000000001e-06,0,2137,143,3285
209,VAIPE_P_103_0.jpg,99,1.6900000000000001e-06,0,2137,143,3285
210,VAIPE_P_103_0.jpg,90,1.6900000000000001e-06,0,2137,143,3285
211,VAIPE_P_103_0.jpg,91,1.6900000000000001e-06,0,2137,143,3285
212,VAIPE_P_103_0.jpg,89,1.25e-06,0,2163,144,3259
213,VAIPE_P_103_0.jpg,99,1.25e-06,0,2163,144,3259
214,VAIPE_P_103_0.jpg,90,1.25e-06,0,2163,144,3259
215,VAIPE_P_103_0.jpg,91,1.25e-06,0,2163,144,3259
216,VAIPE_P_103_0.jpg,89,1.07e-06,0,2137,143,3285
217,VAIPE_P_103_0.jpg,99,1.07e-06,0,2137,143,3285
218,VAIPE_P_103_0.jpg,90,1.07e-06,0,2137,143,3285
219,VAIPE_P_103_0.jpg,91,1.07e-06,0,2137,143,3285
220,VAIPE_P_103_1.jpg,91,0.93408,3148,1421,3904,2042
221,VAIPE_P_103_1.jpg,91,0.91846,2119,1948,2851,2485
222,VAIPE_P_103_1.jpg,30,0.88184,2855,1470,3191,1803
223,VAIPE_P_103_1.jpg,107,0.00986,2857,1462,3193,1808
224,VAIPE_P_103_1.jpg,107,0.0069,2857,1462,3193,1808
225,VAIPE_P_103_1.jpg,107,0.00645,2857,1472,3188,1801
226,VAIPE_P_103_1.jpg,107,0.00626,2853,1459,3193,1809
227,VAIPE_P_103_1.jpg,107,0.00173,2857,1472,3188,1801
228,VAIPE_P_103_1.jpg,107,0.00148,2855,1449,3203,1808
229,VAIPE_P_103_1.jpg,107,0.00129,2849,1453,3197,1817
230,VAIPE_P_103_1.jpg,107,0.00125,2855,1449,3203,1808
231,VAIPE_P_103_1.jpg,107,0.00123,2855,1449,3203,1808
232,VAIPE_P_103_1.jpg,107,0.00116,2851,1460,3195,1812
233,VAIPE_P_103_1.jpg,99,0.00093408,3148,1421,3904,2042
234,VAIPE_P_103_1.jpg,90,0.00093408,3148,1421,3904,2042
235,VAIPE_P_103_1.jpg,89,0.00093408,3148,1421,3904,2042
236,VAIPE_P_103_1.jpg,99,0.0009184600000000001,2119,1948,2851,2485
237,VAIPE_P_103_1.jpg,90,0.0009184600000000001,2119,1948,2851,2485
238,VAIPE_P_103_1.jpg,89,0.0009184600000000001,2119,1948,2851,2485
239,VAIPE_P_103_1.jpg,30,9.86e-06,2857,1462,3193,1808
240,VAIPE_P_103_1.jpg,30,6.9e-06,2857,1462,3193,1808
241,VAIPE_P_103_1.jpg,30,6.26e-06,2853,1459,3193,1809
242,VAIPE_P_103_1.jpg,30,1.29e-06,2849,1453,3197,1817
243,VAIPE_P_103_2.jpg,91,0.9458,2584,1019,3264,1524
244,VAIPE_P_103_2.jpg,30,0.93457,2582,1392,2870,1674
245,VAIPE_P_103_2.jpg,91,0.8584,2085,1537,2636,2144
246,VAIPE_P_103_2.jpg,107,0.01506,2580,1393,2868,1675
40136,VAIPE_P_103_2.jpg,107,0.01137,2088,1533,2432,1924
247,VAIPE_P_103_2.jpg,107,0.00751,2571,1388,2877,1682
248,VAIPE_P_103_2.jpg,107,0.00669,2567,1384,2881,1691
249,VAIPE_P_103_2.jpg,107,0.00494,2582,1394,2870,1674
250,VAIPE_P_103_2.jpg,107,0.00444,2567,1384,2881,1691
251,VAIPE_P_103_2.jpg,91,0.00396,2210,1698,2644,2144
252,VAIPE_P_103_2.jpg,107,0.00353,2580,1385,2872,1675
253,VAIPE_P_103_2.jpg,91,0.00344,2041,1502,2494,2121
254,VAIPE_P_103_2.jpg,107,0.0028,2580,1393,2868,1675
255,VAIPE_P_103_2.jpg,107,0.00239,2578,1390,2870,1676
256,VAIPE_P_103_2.jpg,89,0.00225,2087,1536,2647,2151
257,VAIPE_P_103_2.jpg,91,0.00189,2333,1747,2647,2117
258,VAIPE_P_103_2.jpg,107,0.00186,2578,1392,2870,1674
259,VAIPE_P_103_2.jpg,107,0.00131,2565,1381,2883,1691
260,VAIPE_P_103_2.jpg,99,0.0009458,2584,1019,3264,1524
261,VAIPE_P_103_2.jpg,90,0.0009458,2584,1019,3264,1524
262,VAIPE_P_103_2.jpg,89,0.0009458,2584,1019,3264,1524
263,VAIPE_P_103_2.jpg,99,0.0008584,2085,1537,2636,2144
264,VAIPE_P_103_2.jpg,90,0.0008584,2085,1537,2636,2144
265,VAIPE_P_103_2.jpg,89,0.0008584,2085,1537,2636,2144
266,VAIPE_P_103_2.jpg,30,4.440000000000001e-06,2567,1384,2881,1691
267,VAIPE_P_103_2.jpg,99,3.96e-06,2210,1698,2644,2144
268,VAIPE_P_103_2.jpg,90,3.96e-06,2210,1698,2644,2144
269,VAIPE_P_103_2.jpg,89,3.96e-06,2210,1698,2644,2144
270,VAIPE_P_103_2.jpg,99,3.44e-06,2041,1502,2494,2121
271,VAIPE_P_103_2.jpg,90,3.44e-06,2041,1502,2494,2121
272,VAIPE_P_103_2.jpg,89,3.44e-06,2041,1502,2494,2121
273,VAIPE_P_103_2.jpg,30,2.8e-06,2580,1393,2868,1675
274,VAIPE_P_103_2.jpg,99,2.25e-06,2087,1536,2647,2151
275,VAIPE_P_103_2.jpg,90,2.25e-06,2087,1536,2647,2151
276,VAIPE_P_103_2.jpg,91,2.25e-06,2087,1536,2647,2151
277,VAIPE_P_103_2.jpg,99,1.89e-06,2333,1747,2647,2117
278,VAIPE_P_103_2.jpg,90,1.89e-06,2333,1747,2647,2117
279,VAIPE_P_103_2.jpg,89,1.89e-06,2333,1747,2647,2117
280,VAIPE_P_103_2.jpg,30,1.8600000000000002e-06,2578,1392,2870,1674
281,VAIPE_P_103_3.jpg,30,0.95117,1157,2507,1449,2812
282,VAIPE_P_103_3.jpg,91,0.94092,1961,2268,2571,2922
283,VAIPE_P_103_3.jpg,91,0.85498,1026,2023,1649,2526
284,VAIPE_P_103_3.jpg,107,0.00449,1148,2505,1460,2814
285,VAIPE_P_103_3.jpg,107,0.00232,1149,2507,1459,2812
286,VAIPE_P_103_3.jpg,107,0.00183,1148,2505,1460,2814
287,VAIPE_P_103_3.jpg,99,0.00094092,1961,2268,2571,2922
288,VAIPE_P_103_3.jpg,90,0.00094092,1961,2268,2571,2922
289,VAIPE_P_103_3.jpg,89,0.00094092,1961,2268,2571,2922
290,VAIPE_P_103_3.jpg,99,0.00085498,1026,2023,1649,2526
291,VAIPE_P_103_3.jpg,90,0.00085498,1026,2023,1649,2526
292,VAIPE_P_103_3.jpg,89,0.00085498,1026,2023,1649,2526
293,VAIPE_P_103_3.jpg,30,1.83e-06,1148,2505,1460,2814
294,VAIPE_P_103_4.jpg,91,0.93652,934,2094,1526,2739
295,VAIPE_P_103_4.jpg,91,0.93408,1591,1645,2197,2221
296,VAIPE_P_103_4.jpg,107,0.07019,0,2137,161,3208
297,VAIPE_P_103_4.jpg,91,0.02727,0,2335,161,3160
298,VAIPE_P_103_4.jpg,107,0.01848,0,2238,161,3180
299,VAIPE_P_103_4.jpg,89,0.01221,0,2238,161,3180
300,VAIPE_P_103_4.jpg,107,0.00677,0,2159,160,3186
301,VAIPE_P_103_4.jpg,91,0.00492,0,2004,187,3229
302,VAIPE_P_103_4.jpg,107,0.0047,0,2137,161,3208
303,VAIPE_P_103_4.jpg,107,0.00418,0,2137,161,3208
304,VAIPE_P_103_4.jpg,107,0.00402,0,2240,162,3178
305,VAIPE_P_103_4.jpg,107,0.00185,0,2238,161,3180
306,VAIPE_P_103_4.jpg,107,0.00161,0,2240,162,3178
307,VAIPE_P_103_4.jpg,107,0.00128,0,2110,176,3186
308,VAIPE_P_103_4.jpg,107,0.00121,0,2137,161,3208
309,VAIPE_P_103_4.jpg,107,0.0011,0,2137,161,3208
310,VAIPE_P_103_4.jpg,107,0.00102,0,2137,161,3208
311,VAIPE_P_103_4.jpg,99,0.00093652,934,2094,1526,2739
312,VAIPE_P_103_4.jpg,90,0.00093652,934,2094,1526,2739
313,VAIPE_P_103_4.jpg,89,0.00093652,934,2094,1526,2739
314,VAIPE_P_103_4.jpg,99,0.00093408,1591,1645,2197,2221
315,VAIPE_P_103_4.jpg,90,0.00093408,1591,1645,2197,2221
316,VAIPE_P_103_4.jpg,89,0.00093408,1591,1645,2197,2221
317,VAIPE_P_103_4.jpg,99,2.7269999999999998e-05,0,2335,161,3160
318,VAIPE_P_103_4.jpg,90,2.7269999999999998e-05,0,2335,161,3160
319,VAIPE_P_103_4.jpg,89,2.7269999999999998e-05,0,2335,161,3160
320,VAIPE_P_103_4.jpg,99,1.221e-05,0,2238,161,3180
321,VAIPE_P_103_4.jpg,90,1.221e-05,0,2238,161,3180
322,VAIPE_P_103_4.jpg,91,1.221e-05,0,2238,161,3180
323,VAIPE_P_103_4.jpg,99,4.92e-06,0,2004,187,3229
324,VAIPE_P_103_4.jpg,90,4.92e-06,0,2004,187,3229
325,VAIPE_P_103_4.jpg,89,4.92e-06,0,2004,187,3229
326,VAIPE_P_103_4.jpg,89,4.0200000000000005e-06,0,2240,162,3178
327,VAIPE_P_103_4.jpg,99,4.0200000000000005e-06,0,2240,162,3178
328,VAIPE_P_103_4.jpg,90,4.0200000000000005e-06,0,2240,162,3178
329,VAIPE_P_103_4.jpg,91,4.0200000000000005e-06,0,2240,162,3178
330,VAIPE_P_103_5.jpg,91,0.95459,1483,3027,2083,3638
331,VAIPE_P_103_5.jpg,91,0.94678,1274,2838,1848,3431
332,VAIPE_P_103_5.jpg,30,0.9248,1473,2455,1746,2735
333,VAIPE_P_103_5.jpg,107,0.00469,1468,2457,1752,2733
334,VAIPE_P_103_5.jpg,107,0.0018,1463,2453,1751,2737
335,VAIPE_P_103_5.jpg,107,0.00136,1464,2451,1754,2739
336,VAIPE_P_103_5.jpg,107,0.00101,1468,2451,1750,2739
337,VAIPE_P_103_5.jpg,99,0.0009545900000000001,1483,3027,2083,3638
338,VAIPE_P_103_5.jpg,90,0.0009545900000000001,1483,3027,2083,3638
339,VAIPE_P_103_5.jpg,89,0.0009545900000000001,1483,3027,2083,3638
340,VAIPE_P_103_5.jpg,99,0.0009467799999999999,1274,2838,1848,3431
341,VAIPE_P_103_5.jpg,90,0.0009467799999999999,1274,2838,1848,3431
342,VAIPE_P_103_5.jpg,89,0.0009467799999999999,1274,2838,1848,3431
343,VAIPE_P_103_5.jpg,30,4.69e-06,1468,2457,1752,2733
344,VAIPE_P_103_6.jpg,91,0.95166,2240,1052,3066,1691
345,VAIPE_P_103_6.jpg,91,0.9502,3044,572,3891,1234
346,VAIPE_P_103_6.jpg,30,0.92432,3285,1191,3664,1572
347,VAIPE_P_103_6.jpg,107,0.00951,3285,1195,3668,1572
348,VAIPE_P_103_6.jpg,107,0.00947,3289,1200,3672,1576
349,VAIPE_P_103_6.jpg,107,0.00345,3289,1200,3668,1572
350,VAIPE_P_103_6.jpg,107,0.00243,3289,1205,3664,1562
351,VAIPE_P_103_6.jpg,107,0.0021,3289,1202,3659,1565
352,VAIPE_P_103_6.jpg,107,0.002,3289,1195,3668,1576
353,VAIPE_P_103_6.jpg,107,0.00122,3283,1190,3666,1571
354,VAIPE_P_103_6.jpg,99,0.00095166,2240,1052,3066,1691
355,VAIPE_P_103_6.jpg,90,0.00095166,2240,1052,3066,1691
356,VAIPE_P_103_6.jpg,89,0.00095166,2240,1052,3066,1691
357,VAIPE_P_103_6.jpg,99,0.0009502000000000001,3044,572,3891,1234
358,VAIPE_P_103_6.jpg,90,0.0009502000000000001,3044,572,3891,1234
359,VAIPE_P_103_6.jpg,89,0.0009502000000000001,3044,572,3891,1234
360,VAIPE_P_103_6.jpg,30,9.469999999999999e-06,3289,1200,3672,1576
361,VAIPE_P_103_6.jpg,30,2.43e-06,3289,1205,3664,1562
362,VAIPE_P_103_7.jpg,91,0.9458,1304,2187,1816,2548
363,VAIPE_P_103_7.jpg,91,0.93262,1537,2445,1881,2982
364,VAIPE_P_103_7.jpg,99,0.0009458,1304,2187,1816,2548
365,VAIPE_P_103_7.jpg,90,0.0009458,1304,2187,1816,2548
366,VAIPE_P_103_7.jpg,89,0.0009458,1304,2187,1816,2548
367,VAIPE_P_103_7.jpg,99,0.00093262,1537,2445,1881,2982
368,VAIPE_P_103_7.jpg,90,0.00093262,1537,2445,1881,2982
369,VAIPE_P_103_7.jpg,89,0.00093262,1537,2445,1881,2982
40573,VAIPE_P_103_8.jpg,107,0.47339,1283,643,2031,1575
40574,VAIPE_P_103_8.jpg,107,0.46094,1556,1469,2033,1962
370,VAIPE_P_103_8.jpg,107,0.14148,1027,2161,1390,2522
371,VAIPE_P_103_8.jpg,107,0.05966,1244,1490,1643,2025
372,VAIPE_P_103_8.jpg,107,0.05811,1244,1490,1643,2025
373,VAIPE_P_103_8.jpg,89,0.00561,1259,653,2038,1609
374,VAIPE_P_103_8.jpg,107,0.00283,1025,2150,1396,2524
375,VAIPE_P_103_8.jpg,107,0.00273,1529,1450,2052,1983
376,VAIPE_P_103_8.jpg,107,0.00272,1535,1445,2058,1991
377,VAIPE_P_103_8.jpg,107,0.00199,1027,2152,1386,2510
378,VAIPE_P_103_8.jpg,107,0.00171,1024,2150,1394,2520
379,VAIPE_P_103_8.jpg,107,0.00141,1034,2161,1385,2514
380,VAIPE_P_103_8.jpg,107,0.00135,1027,2152,1386,2510
381,VAIPE_P_103_8.jpg,107,0.00118,1023,2150,1392,2520
382,VAIPE_P_103_8.jpg,99,5.6100000000000005e-06,1259,653,2038,1609
383,VAIPE_P_103_8.jpg,90,5.6100000000000005e-06,1259,653,2038,1609
384,VAIPE_P_103_8.jpg,91,5.6100000000000005e-06,1259,653,2038,1609
385,VAIPE_P_103_8.jpg,30,1.71e-06,1024,2150,1394,2520
386,VAIPE_P_103_8.jpg,30,1.41e-06,1034,2161,1385,2514
387,VAIPE_P_103_8.jpg,30,1.3500000000000002e-06,1027,2152,1386,2510
40126,VAIPE_P_103_9.jpg,107,0.45728,1762,564,2442,1043
40127,VAIPE_P_103_9.jpg,107,0.45459,2552,1122,3270,1805
40128,VAIPE_P_103_9.jpg,107,0.4519,1665,1131,2226,1553
40129,VAIPE_P_103_9.jpg,107,0.4519,1043,1393,1633,1834
40130,VAIPE_P_103_9.jpg,107,0.43311,1277,2505,1707,2950
40131,VAIPE_P_103_9.jpg,107,0.40405,2159,1910,2554,2316
388,VAIPE_P_104_0.jpg,65,0.93848,734,1610,1094,1979
389,VAIPE_P_104_0.jpg,65,0.92041,1535,2043,1905,2426
390,VAIPE_P_104_0.jpg,79,0.91748,1382,1180,1907,1512
391,VAIPE_P_104_0.jpg,107,0.01447,726,1613,1092,1984
392,VAIPE_P_104_0.jpg,107,0.00699,1527,2040,1909,2440
393,VAIPE_P_104_0.jpg,107,0.0035,726,1613,1092,1984
394,VAIPE_P_104_0.jpg,107,0.00301,0,528,102,918
395,VAIPE_P_104_0.jpg,107,0.00283,1526,2039,1912,2442
396,VAIPE_P_104_0.jpg,107,0.00272,1531,2040,1905,2442
397,VAIPE_P_104_0.jpg,107,0.00256,732,1605,1100,1992
398,VAIPE_P_104_0.jpg,107,0.0016,733,1602,1105,1991
399,VAIPE_P_104_0.jpg,107,0.00137,1372,1148,1927,1524
400,VAIPE_P_104_0.jpg,65,0.00108,1499,1995,1961,2470
401,VAIPE_P_104_0.jpg,107,0.00105,726,1613,1092,1984
402,VAIPE_P_104_0.jpg,107,0.00104,1520,2046,1903,2436
403,VAIPE_P_104_0.jpg,107,0.00101,0,502,114,1069
404,VAIPE_P_104_0.jpg,65,6.99e-06,1527,2040,1909,2440
405,VAIPE_P_104_0.jpg,65,2.56e-06,732,1605,1100,1992
406,VAIPE_P_104_1.jpg,65,0.94775,959,1772,1340,2171
407,VAIPE_P_104_1.jpg,65,0.94678,1550,1399,1945,1812
408,VAIPE_P_104_1.jpg,79,0.92773,1421,1966,1887,2495
409,VAIPE_P_104_1.jpg,107,0.02817,958,1771,1346,2163
410,VAIPE_P_104_1.jpg,107,0.00737,958,1765,1350,2171
411,VAIPE_P_104_1.jpg,107,0.00641,1546,1389,1947,1807
412,VAIPE_P_104_1.jpg,107,0.0048,957,1760,1349,2169
413,VAIPE_P_104_1.jpg,107,0.00432,1543,1383,1951,1809
414,VAIPE_P_104_1.jpg,107,0.00248,1409,1960,1892,2503
415,VAIPE_P_104_1.jpg,107,0.00155,959,1770,1347,2165
416,VAIPE_P_104_1.jpg,107,0.0015,1411,1968,1894,2497
417,VAIPE_P_104_1.jpg,107,0.00115,1426,1958,1894,2501
418,VAIPE_P_104_1.jpg,107,0.00112,1549,1391,1948,1801
419,VAIPE_P_104_1.jpg,65,7.37e-06,958,1765,1350,2171
420,VAIPE_P_104_1.jpg,65,6.41e-06,1546,1389,1947,1807
421,VAIPE_P_104_1.jpg,65,1.55e-06,959,1770,1347,2165
40120,VAIPE_P_104_2.jpg,107,0.46509,889,761,1699,1534
40121,VAIPE_P_104_2.jpg,107,0.46338,1588,1809,2020,2260
40122,VAIPE_P_104_2.jpg,107,0.45923,1921,2352,2472,2936
40123,VAIPE_P_104_2.jpg,107,0.45435,2075,223,2709,891
40124,VAIPE_P_104_2.jpg,107,0.45288,2566,1175,3007,1624
40125,VAIPE_P_104_2.jpg,107,0.44604,2837,2087,3408,2684
40116,VAIPE_P_104_3.jpg,107,0.47339,904,400,1528,1036
40117,VAIPE_P_104_3.jpg,107,0.47339,2776,1195,3658,2047
40118,VAIPE_P_104_3.jpg,107,0.46631,1238,1515,2053,2171
40119,VAIPE_P_104_3.jpg,107,0.46484,2228,545,2917,1170
40132,VAIPE_P_104_4.jpg,107,0.46875,2600,680,3868,1686
40133,VAIPE_P_104_4.jpg,107,0.46216,2350,1978,3034,2730
40134,VAIPE_P_104_4.jpg,107,0.45215,507,1075,1287,1869
40135,VAIPE_P_104_4.jpg,107,0.4436,1780,1310,2360,1968
422,VAIPE_P_105_0.jpg,2,0.93018,1800,969,2313,1857
423,VAIPE_P_105_0.jpg,19,0.92725,311,635,749,1665
424,VAIPE_P_105_0.jpg,2,0.9209,1045,1730,1907,2171
425,VAIPE_P_105_0.jpg,19,0.92041,826,741,1784,1375
426,VAIPE_P_105_0.jpg,107,0.34619,827,757,1780,1359
427,VAIPE_P_105_0.jpg,2,0.14819,829,752,1764,1367
428,VAIPE_P_105_0.jpg,107,0.02199,820,757,1777,1365
429,VAIPE_P_105_0.jpg,107,0.02043,293,648,754,1672
430,VAIPE_P_105_0.jpg,21,0.00683,1053,1732,1911,2167
431,VAIPE_P_105_0.jpg,107,0.00468,1805,964,2305,1862
432,VAIPE_P_105_0.jpg,21,0.0043,1806,967,2307,1862
433,VAIPE_P_105_0.jpg,107,0.00371,1805,964,2305,1862
434,VAIPE_P_105_0.jpg,21,0.00259,836,751,1761,1368
435,VAIPE_P_105_0.jpg,107,0.00243,1798,973,2303,1867
436,VAIPE_P_105_0.jpg,107,0.00137,790,738,1797,1395
437,VAIPE_P_105_0.jpg,107,0.00133,1797,974,2303,1858
438,VAIPE_P_105_0.jpg,107,0.00128,827,750,1779,1357
439,VAIPE_P_105_0.jpg,107,0.00119,828,752,1774,1374
440,VAIPE_P_105_0.jpg,43,0.00115,1798,973,2303,1867
441,VAIPE_P_105_0.jpg,107,0.00111,821,759,1763,1376
442,VAIPE_P_105_0.jpg,107,0.00108,1052,1729,1913,2171
443,VAIPE_P_105_0.jpg,107,0.00102,1805,970,2305,1858
444,VAIPE_P_105_1.jpg,2,0.92432,1049,1497,1784,2139
445,VAIPE_P_105_1.jpg,2,0.9209,224,1158,680,1983
446,VAIPE_P_105_1.jpg,19,0.90332,1798,2509,2354,3459
447,VAIPE_P_105_1.jpg,74,0.87256,1849,1725,2223,2013
448,VAIPE_P_105_1.jpg,19,0.87109,490,2518,1437,2969
449,VAIPE_P_105_1.jpg,74,0.86328,2324,2109,2703,2402
450,VAIPE_P_105_1.jpg,74,0.81396,2634,1789,2948,2148
451,VAIPE_P_105_1.jpg,107,0.58984,221,1151,684,1990
452,VAIPE_P_105_1.jpg,107,0.56836,444,2511,1470,3001
453,VAIPE_P_105_1.jpg,107,0.20642,2324,2107,2711,2412
454,VAIPE_P_105_1.jpg,107,0.12384,1041,1490,1793,2148
455,VAIPE_P_105_1.jpg,107,0.11584,467,2507,1458,2997
456,VAIPE_P_105_1.jpg,107,0.1062,2642,1790,2956,2156
457,VAIPE_P_105_1.jpg,107,0.02538,1830,1706,2245,2026
458,VAIPE_P_105_1.jpg,107,0.01891,1830,1708,2240,2031
459,VAIPE_P_105_1.jpg,107,0.01338,1829,1710,2240,2031
460,VAIPE_P_105_1.jpg,107,0.00946,491,2554,1437,2958
461,VAIPE_P_105_1.jpg,43,0.00631,1041,1490,1793,2148
462,VAIPE_P_105_1.jpg,107,0.00596,2324,2103,2707,2412
463,VAIPE_P_105_1.jpg,107,0.00473,2638,1787,2956,2154
464,VAIPE_P_105_1.jpg,107,0.0044,1830,1709,2242,2030
465,VAIPE_P_105_1.jpg,43,0.00406,216,1161,689,1980
466,VAIPE_P_105_1.jpg,107,0.00404,1835,1712,2238,2029
467,VAIPE_P_105_1.jpg,107,0.00381,1786,2509,2374,3459
468,VAIPE_P_105_1.jpg,107,0.00342,1046,1504,1792,2163
469,VAIPE_P_105_1.jpg,107,0.00301,2640,1791,2958,2152
470,VAIPE_P_105_1.jpg,107,0.00273,2640,1777,2958,2154
471,VAIPE_P_105_1.jpg,107,0.0026,2322,2106,2709,2404
472,VAIPE_P_105_1.jpg,107,0.00256,1830,1708,2240,2031
473,VAIPE_P_105_1.jpg,107,0.00241,1786,2509,2374,3459
474,VAIPE_P_105_1.jpg,107,0.00228,1836,1710,2238,2029
475,VAIPE_P_105_1.jpg,107,0.00216,224,1157,689,1976
476,VAIPE_P_105_1.jpg,107,0.0019,2322,2106,2709,2404
477,VAIPE_P_105_1.jpg,107,0.00171,1036,1485,1795,2152
478,VAIPE_P_105_1.jpg,107,0.0017,496,2541,1438,2963
479,VAIPE_P_105_1.jpg,107,0.00165,214,1151,668,1973
480,VAIPE_P_105_1.jpg,107,0.00157,2638,1790,2956,2154
481,VAIPE_P_105_1.jpg,107,0.00155,1830,1708,2240,2031
482,VAIPE_P_105_1.jpg,107,0.00152,1048,1499,1789,2146
483,VAIPE_P_105_1.jpg,21,0.00135,1036,1485,1795,2152
484,VAIPE_P_105_1.jpg,107,0.00129,2333,2101,2698,2402
485,VAIPE_P_105_1.jpg,107,0.00121,2647,1795,2952,2141
486,VAIPE_P_105_1.jpg,107,0.00116,1826,1708,2240,2029
487,VAIPE_P_105_1.jpg,107,0.00115,1797,2520,2361,3449
488,VAIPE_P_105_1.jpg,107,0.00113,2333,2102,2698,2399
489,VAIPE_P_105_1.jpg,107,0.0011,1846,1729,2223,2008
490,VAIPE_P_105_1.jpg,74,0.00020642,2324,2107,2711,2412
491,VAIPE_P_105_1.jpg,74,0.0001062,2642,1790,2956,2156
492,VAIPE_P_105_1.jpg,74,1.891e-05,1830,1708,2240,2031
493,VAIPE_P_105_1.jpg,74,5.9600000000000005e-06,2324,2103,2707,2412
494,VAIPE_P_105_1.jpg,74,4.73e-06,2638,1787,2956,2154
495,VAIPE_P_105_1.jpg,74,4.4e-06,1830,1709,2242,2030
496,VAIPE_P_105_1.jpg,74,2.7299999999999997e-06,2640,1777,2958,2154